/*--------------------------------*- C++ -*----------------------------------*\
| =========                 |                                                 |
| \\      /  F ield         | OpenFOAM: The Open Source CFD Toolbox           |
|  \\    /   O peration     | Version:  v2006                                 |
|   \\  /    A nd           | Website:  www.openfoam.com                      |
|    \\/     M anipulation  |                                                 |
\*---------------------------------------------------------------------------*/
FoamFile
{
    version     2.0;
    format      ascii;
    class       polyBoundaryMesh;
    location    "constant/polyMesh";
    object      boundary;
}
// * * * * * * * * * * * * * * * * * * * * * * * * * * * * * * * * * * * * * //

6
(
    frontPlanes
    {
        type            patch;
        physicalType    patch;
        nFaces          921600;
        startFace       1841120;
    }
    backPlanes
    {
        type            patch;
        physicalType    patch;
        nFaces          921600;
        startFace       2762720;
    }
    my-velocity-inlet
    {
        type            patch;
        physicalType    patch;
        nFaces          640;
        startFace       3684320;
    }
    my-pressure-outlet
    {
        type            patch;
        physicalType    patch;
        nFaces          640;
        startFace       3684960;
    }
    my-wall
    {
        type            patch;
        physicalType    patch;
        nFaces          1440;
        startFace       3685600;
    }
    freeSurf
    {
        type            patch;
        physicalType    patch;
        nFaces          1440;
        startFace       3687040;
    }
)

// ************************************************************************* //
